TITLE = "Line y = 0, z = -700"
VARIABLES = "x", "ExR", "EyR", "EzR", "ExI", "EyI", "EzI", "abs(E)"
ZONE I= 1000, F=POINT
-6.00000000000000000e+02 -5.67083888901222496e-12 1.63567517075016810e-09 -4.77207261848512649e-13 -9.47830108001487569e-13 -1.32419317540854154e-09 -1.01446231307222604e-12 2.10450829023392568e-09
-5.98798798798798771e+02 -5.34079330062482286e-12 1.64242831654706610e-09 -7.56449672112996771e-13 -9.75917932785251824e-13 -1.32280624547302450e-09 -1.07105434132622575e-12 2.10889030865061125e-09
-5.97597597597597542e+02 1.46994947559364013e-12 1.63741679179497664e-09 -8.02253735457531484e-12 4.98791185922559824e-13 -1.32407964460215302e-09 -2.74118710095435630e-12 2.10580030868512181e-09
-5.96396396396396426e+02 1.43358153462691670e-12 1.64366535741163645e-09 -7.83544447341914652e-12 4.62123383922696176e-13 -1.32260906509480888e-09 -2.73924836322993027e-12 2.10973972627237057e-09
-5.95195195195195197e+02 1.39721359366001999e-12 1.64991392302829543e-09 -7.64835159226310098e-12 4.25455581922864233e-13 -1.32113848558746411e-09 -2.73730962550546911e-12 2.11369131494343381e-09
-5.93993993993993968e+02 1.36084565269328807e-12 1.65616248864495917e-09 -7.46125871110726385e-12 3.88787779923026940e-13 -1.31966790608012224e-09 -2.73537088778077854e-12 2.11765500656382536e-09
-5.92792792792792739e+02 1.32447771172620275e-12 1.66241105426161981e-09 -7.27416582995123204e-12 3.52119977923349286e-13 -1.31819732657277850e-09 -2.73343215005644016e-12 2.12163073330030257e-09
-5.91591591591591623e+02 1.28810977075957706e-12 1.66865961987827507e-09 -7.08707294879522365e-12 3.15452175923371739e-13 -1.31672674706543105e-09 -2.73149341233178230e-12 2.12561842762192872e-09
-5.90390390390390394e+02 6.19434324714295522e-13 1.67463391471688751e-09 -4.37630725838705685e-12 4.28393966830765409e-13 -1.31535418312163655e-09 -3.16686251290883637e-12 2.12945653247002527e-09
-5.89189189189189165e+02 4.78614710943176225e-13 1.68093876835147566e-09 -3.97275680017005700e-12 4.50384275228356566e-13 -1.31407083785130366e-09 -3.17183637000343921e-12 2.13362686173069911e-09
-5.87987987987987935e+02 3.37795097171963021e-13 1.68724362198606608e-09 -3.56920634195302040e-12 4.72374583626136646e-13 -1.31278749258097242e-09 -3.17681022709814827e-12 2.13780850620678863e-09
-5.86786786786786820e+02 1.96975483400872401e-13 1.69354847562064947e-09 -3.16565588373609366e-12 4.94364892023755471e-13 -1.31150414731063643e-09 -3.18178408419270425e-12 2.14200139962912848e-09
-5.85585585585585591e+02 5.61558696297492665e-14 1.69985332925523473e-09 -2.76210542551901829e-12 5.16355200421519597e-13 -1.31022080204030167e-09 -3.18675794128742341e-12 2.14620547606886167e-09
-5.84384384384384362e+02 -8.46637441414493965e-14 1.70615818288982246e-09 -2.35855496730201319e-12 5.38345508819175579e-13 -1.30893745676996878e-09 -3.19173179838194344e-12 2.15042066993753090e-09
-5.83183183183183132e+02 -2.25483357912788616e-13 1.71246303652440854e-09 -1.95500450908508645e-12 5.60335817217042699e-13 -1.30765411149963423e-09 -3.19670565547656243e-12 2.15464691598715218e-09
-5.81981981981982017e+02 -3.66302971683825922e-13 1.71876789015899834e-09 -1.55145405086810640e-12 5.82326125614694138e-13 -1.30637076622930403e-09 -3.20167951257124645e-12 2.15888414931026576e-09
-5.80780780780780788e+02 -5.07122585454999947e-13 1.72507274379358235e-09 -1.14790359265104395e-12 6.04316434012332854e-13 -1.30508742095896803e-09 -3.20665336966592320e-12 2.16313230533987692e-09
-5.79579579579579558e+02 -6.47942199226148527e-13 1.73137759742816967e-09 -7.44353134433968270e-13 6.26306742410082844e-13 -1.30380407568863390e-09 -3.21162722676056925e-12 2.16739131984943946e-09
-5.78378378378378329e+02 -7.88761812997259746e-13 1.73768245106275761e-09 -3.40802676216962618e-13 6.48297050807721358e-13 -1.30252073041830183e-09 -3.21660108385519672e-12 2.17166112895271014e-09
-5.77177177177177214e+02 -9.29581426768492740e-13 1.74398730469734163e-09 6.27477819999767943e-14 6.70287359205456202e-13 -1.30123738514796667e-09 -3.22157494094976886e-12 2.17594166910360301e-09
-5.75975975975975985e+02 -1.07040104053965142e-12 1.75029215833192812e-09 4.66298240217122649e-13 6.92277667603182159e-13 -1.29995403987763233e-09 -3.22654879804446136e-12 2.18023287709601499e-09
-5.74774774774774755e+02 -1.21122065431088562e-12 1.75659701196651647e-09 8.69848698434019198e-13 7.14267976000840061e-13 -1.29867069460730026e-09 -3.23152265513901451e-12 2.18453469006357184e-09
-5.73573573573573526e+02 -1.35204026808194696e-12 1.76290186560110235e-09 1.27339915665102339e-12 7.36258284398593080e-13 -1.29738734933696551e-09 -3.23649651223365572e-12 2.18884704547934942e-09
-5.72372372372372411e+02 -1.49285988185317632e-12 1.76920671923568905e-09 1.67694961486794346e-12 7.58248592796285110e-13 -1.29610400406663241e-09 -3.24147036932828440e-12 2.19316988115558173e-09
-5.71171171171171181e+02 -1.63367949562428734e-12 1.77551157287027740e-09 2.08050007308513011e-12 7.80238901193978352e-13 -1.29482065879629972e-09 -3.24644422642302456e-12 2.19750313524328697e-09
-5.69969969969969952e+02 -1.77449910939534262e-12 1.78181642650486100e-09 2.48405053130202454e-12 8.02229209591648168e-13 -1.29353731352596414e-09 -3.25141808351767263e-12 2.20184674623187881e-09
-5.68768768768768723e+02 -1.91531872316653159e-12 1.78812128013944915e-09 2.88760098951908254e-12 8.24219517989309099e-13 -1.29225396825563084e-09 -3.25639194061221286e-12 2.20620065294876063e-09
-5.67567567567567608e+02 -2.05613833693778377e-12 1.79442613377403626e-09 3.29115144773611187e-12 8.46209826387031018e-13 -1.29097062298529836e-09 -3.26136579770684922e-12 2.21056479455883296e-09
-5.66366366366366378e+02 -2.19695795070902666e-12 1.80073098740862213e-09 3.69470190595302569e-12 8.68200134784784844e-13 -1.28968727771496360e-09 -3.26633965480151668e-12 2.21493911056401080e-09
-5.65165165165165149e+02 -2.33777756448031034e-12 1.80703584104320945e-09 4.09825236417016528e-12 8.90190443182501109e-13 -1.28840393244462988e-09 -3.27131351189617525e-12 2.21932354080269792e-09
-5.63963963963963920e+02 -2.47859717825129272e-12 1.81334069467779574e-09 4.50180282238707466e-12 9.12180751580166886e-13 -1.28712058717429596e-09 -3.27628736899077324e-12 2.22371802544920875e-09
-5.62762762762762804e+02 -2.61941679202254772e-12 1.81964554831237851e-09 4.90535328060413670e-12 9.34171059977939696e-13 -1.28583724190395996e-09 -3.28126122608540555e-12 2.22812250501317352e-09
-5.61561561561561575e+02 -2.76023640579365894e-12 1.82595040194696914e-09 5.30890373882129811e-12 9.56161368375602646e-13 -1.28455389663362976e-09 -3.28623508318017197e-12 2.23253692033893328e-09
-5.60360360360360346e+02 -2.90105601956493778e-12 1.83225525558155667e-09 5.71245419703810166e-12 9.78151676773416653e-13 -1.28327055136329625e-09 -3.29120894027471462e-12 2.23696121260482929e-09
-5.59159159159159117e+02 -3.04187563333610918e-12 1.83856010921614026e-09 6.11600465525517744e-12 1.00014198517103033e-12 -1.28198720609296025e-09 -3.29618279736930413e-12 2.24139532332255826e-09
-5.57957957957958001e+02 -3.18269524710727048e-12 1.84486496285072593e-09 6.51955511347225968e-12 1.02213229356875548e-12 -1.28070386082262550e-09 -3.30115665446406367e-12 2.24583919433644812e-09
-5.56756756756756772e+02 -3.32351486087842088e-12 1.85116981648531366e-09 6.92310557168921348e-12 1.04412260196641156e-12 -1.27942051555229302e-09 -3.30613051155869438e-12 2.25029276782269336e-09
-5.55555555555555543e+02 -3.46433447464946667e-12 1.85747467011990140e-09 7.32665602990634742e-12 1.06611291036404018e-12 -1.27813717028195992e-09 -3.31110436865337597e-12 2.25475598628858773e-09
-5.54354354354354314e+02 -3.60515408842071036e-12 1.86377952375448996e-09 7.73020648812310654e-12 1.08810321876184167e-12 -1.27685382501162806e-09 -3.31607822574793357e-12 2.25922879257172691e-09
-5.53153153153153198e+02 -3.74597370219171899e-12 1.87008437738907542e-09 8.13375694634034388e-12 1.11009352715942505e-12 -1.27557047974129289e-09 -3.32105208284259416e-12 2.26371112983917055e-09
-5.51951951951951969e+02 -3.88679331596300025e-12 1.87638923102365964e-09 8.53730740455715470e-12 1.13208383555721199e-12 -1.27428713447095814e-09 -3.32602593993719053e-12 2.26820294158660598e-09
-5.50750750750750740e+02 -4.02761292973407310e-12 1.88269408465824799e-09 8.94085786277415939e-12 1.15407414395490403e-12 -1.27300378920062545e-09 -3.33099979703175621e-12 2.27270417163746150e-09
-5.49549549549549511e+02 -4.16843254350540525e-12 1.88899893829283345e-09 9.34440832099140965e-12 1.17606445235273944e-12 -1.27172044393029070e-09 -3.33597365412650687e-12 2.27721476414199106e-09
-5.48348348348348395e+02 -4.30925215727652738e-12 1.89530379192742056e-09 9.74795877920848058e-12 1.19805476075037896e-12 -1.27043709865995843e-09 -3.34094751122115857e-12 2.28173466357637474e-09
-5.47147147147147166e+02 -4.45007177104752752e-12 1.90160864556200933e-09 1.01515092374252381e-11 1.22004506914797689e-12 -1.26915375338962533e-09 -3.34592136831572102e-12 2.28626381474174848e-09
-5.45945945945945937e+02 -4.59089138481886048e-12 1.90791349919659562e-09 1.05550596956423349e-11 1.24203537754576141e-12 -1.26787040811929078e-09 -3.35089522541031699e-12 2.29080216276324284e-09
-5.44744744744744708e+02 -4.73171099858986790e-12 1.91421835283118273e-09 1.09586101538592103e-11 1.26402568594336499e-12 -1.26658706284895768e-09 -3.35586908250510238e-12 2.29534965308899870e-09
-5.43543543543543592e+02 -4.87253061236104334e-12 1.92052320646576778e-09 1.13621606120763943e-11 1.28601599434107196e-12 -1.26530371757862313e-09 -3.36084293959975853e-12 2.29990623148914113e-09
-5.42342342342342363e+02 -5.01335022613242800e-12 1.92682806010035365e-09 1.17657110702935412e-11 1.30800630273895180e-12 -1.26402037230828838e-09 -3.36581679669435450e-12 2.30447184405476154e-09
-5.41141141141141134e+02 -5.15416983990341684e-12 1.93313291373493911e-09 1.21692615285106331e-11 1.32999661113652468e-12 -1.26273702703795445e-09 -3.37079065378908254e-12 2.30904643719685558e-09
-5.39939939939939904e+02 3.58035436286981060e-12 1.94042550619818748e-09 4.33754278044662456e-12 1.53320939060392592e-12 -1.26171313679779247e-09 -3.58203111558485829e-12 2.31456648199296744e-09
-5.38738738738738789e+02 3.86674354247218889e-12 1.94581048523776305e-09 4.45886968162657395e-12 1.51989106820487052e-12 -1.26079302692580704e-09 -3.59713333092332520e-12 2.31858309833128039e-09
-5.37537537537537560e+02 4.15313272207468026e-12 1.95119546427734194e-09 4.58019658280671722e-12 1.50657274580575211e-12 -1.25987291705382202e-09 -3.61223554626205545e-12 2.32260565995637802e-09
-5.36336336336336331e+02 4.43952190167716840e-12 1.95658044331691958e-09 4.70152348398668599e-12 1.49325442340657554e-12 -1.25895280718183617e-09 -3.62733776160057083e-12 2.32663413603150226e-09
-5.35135135135135101e+02 4.72591108127953699e-12 1.96196542235649639e-09 4.82285038516665800e-12 1.47993610100759769e-12 -1.25803269730985053e-09 -3.64243997693925180e-12 2.33066849588791531e-09
-5.33933933933933986e+02 5.01230026088198313e-12 1.96735040139607238e-09 4.94417728634680127e-12 1.46661777860841790e-12 -1.25711258743786448e-09 -3.65754219227777768e-12 2.33470870902422253e-09
-5.32732732732732757e+02 5.29868944048446158e-12 1.97273538043565333e-09 5.06550418752665372e-12 1.45329945620936734e-12 -1.25619247756588070e-09 -3.67264440761639323e-12 2.33875474510569875e-09
-5.31531531531531527e+02 5.58507862008689480e-12 1.97812035947522973e-09 5.18683108870659019e-12 1.43998113381023440e-12 -1.25527236769389527e-09 -3.68774662295499585e-12 2.34280657396358802e-09
-5.30330330330330298e+02 5.87146779968915999e-12 1.98350533851480531e-09 5.30815798988659774e-12 1.42666281141122424e-12 -1.25435225782190880e-09 -3.70284883829364532e-12 2.34686416559444647e-09
-5.29129129129129069e+02 6.15785697929174184e-12 1.98889031755438378e-09 5.42948489106649220e-12 1.41334448901204121e-12 -1.25343214794992337e-09 -3.71795105363217281e-12 2.35092749015944325e-09
-5.27927927927927954e+02 6.44424615889401349e-12 1.99427529659396018e-09 5.55081179224651914e-12 1.40002616661302458e-12 -1.25251203807793773e-09 -3.73305326897086752e-12 2.35499651798366003e-09
-5.26726726726726724e+02 -1.94028906328061643e-13 1.99884637880384346e-09 5.65882575802370566e-12 -9.52102531969706101e-13 -1.25172194503809888e-09 -3.74558420867553598e-12 2.35844051644379443e-09
-5.25525525525525495e+02 2.99069591885688607e-13 2.00274234755479742e-09 5.69646755767065914e-12 -1.08816939963621446e-12 -1.24966883435839753e-09 -3.70838547238757251e-12 2.36065596427702441e-09
-5.24324324324324380e+02 7.92168090099484094e-13 2.00663831630574849e-09 5.73410935731752860e-12 -1.22423626730260327e-12 -1.24761572367869474e-09 -3.67118673609958238e-12 2.36287765454404689e-09
-5.23123123123123150e+02 1.28526658831345406e-12 2.01053428505670038e-09 5.77175115696450955e-12 -1.36030313496915687e-12 -1.24556261299899277e-09 -3.63398799981163022e-12 2.36510556965315182e-09
-5.21921921921921921e+02 1.77836508652740465e-12 2.01443025380765186e-09 5.80939295661150341e-12 -1.49637000263563130e-12 -1.24350950231928915e-09 -3.59678926352365302e-12 2.36733969202964674e-09
-5.20720720720720692e+02 2.27146358474141662e-12 2.01832622255860251e-09 5.84703475625849082e-12 -1.63243687030222367e-12 -1.24145639163958573e-09 -3.55959052723565481e-12 2.36958000411625132e-09
-5.19519519519519463e+02 2.76456208295519272e-12 2.02222219130955854e-09 5.88467655590543944e-12 -1.76850373796860925e-12 -1.23940328095988542e-09 -3.52239179094777535e-12 2.37182648837347293e-09
-5.18318318318318347e+02 3.25766058116904960e-12 2.02611816006050919e-09 5.92231835555240746e-12 -1.90457060563510792e-12 -1.23735017028018283e-09 -3.48519305465984257e-12 2.37407912727995820e-09
-5.17117117117117118e+02 3.75075907938290002e-12 2.03001412881146067e-09 5.95996015519940133e-12 -2.04063747330155650e-12 -1.23529705960047962e-09 -3.44799431837184518e-12 2.37633790333289622e-09
-5.15915915915915889e+02 4.24385757759710586e-12 2.03391009756241298e-09 5.99760195484634350e-12 -2.17670434096811980e-12 -1.23324394892077724e-09 -3.41079558208390594e-12 2.37860279904836065e-09
-5.14714714714714773e+02 4.73695607581088519e-12 2.03780606631336363e-09 6.03524375449335675e-12 -2.31277120863457807e-12 -1.23119083824107465e-09 -3.37359684579596832e-12 2.38087379696167156e-09
-5.13513513513513544e+02 5.23005457402455466e-12 2.04170203506431842e-09 6.07288555414029568e-12 -2.44883807630097496e-12 -1.22913772756137351e-09 -3.33639810950799838e-12 2.38315087962776436e-09
-5.12312312312312315e+02 5.72315307223869589e-12 2.04559800381527073e-09 6.11052735378725401e-12 -2.58490494396752371e-12 -1.22708461688167092e-09 -3.29919937321999452e-12 2.38543402962151944e-09
-5.11111111111111086e+02 6.21625157045255923e-12 2.04949397256622221e-09 6.14816915343428665e-12 -2.72097181163405631e-12 -1.22503150620196854e-09 -3.26200063693208114e-12 2.38772322953813442e-09
-5.09909909909909913e+02 -1.68781460364958032e-12 2.05558138008121507e-09 -2.35778025995375049e-12 -4.31335521202053430e-13 -1.22259175309251993e-09 -8.52153753257615677e-13 2.39168449527287698e-09
-5.08708708708708741e+02 -1.62470324123119645e-12 2.06182042038506543e-09 -2.36391066880058681e-12 -3.95705405965645871e-13 -1.22002771243840241e-09 -8.63171738267613955e-13 2.39574209680779720e-09
-5.07507507507507512e+02 -1.56159187881273503e-12 2.06805946068891620e-09 -2.37004107764739729e-12 -3.60075290729341710e-13 -1.21746367178428448e-09 -8.74189723277590423e-13 2.39981179982622710e-09
-5.06306306306306283e+02 -1.49848051639426715e-12 2.07429850099276614e-09 -2.37617148649431116e-12 -3.24445175492984234e-13 -1.21489963113016655e-09 -8.85207708287569315e-13 2.40389354286607340e-09
-5.05105105105105110e+02 -1.43536915397576050e-12 2.08053754129662064e-09 -2.38230189534100531e-12 -2.88815060256662301e-13 -1.21233559047605027e-09 -8.96225693297603136e-13 2.40798726470076306e-09
-5.03903903903903938e+02 -1.37225779155732493e-12 2.08677658160047100e-09 -2.38843230418789333e-12 -2.53184945020281399e-13 -1.20977154982193296e-09 -9.07243678307551332e-13 2.41209290434028180e-09
-5.02702702702702709e+02 -1.30914642913892167e-12 2.09301562190432094e-09 -2.39456271303461333e-12 -2.17554829783920692e-13 -1.20720750916781441e-09 -9.18261663317588384e-13 2.41621040103221056e-09
-5.01501501501501480e+02 -1.24603506672045379e-12 2.09925466220817378e-09 -2.40069312188142380e-12 -1.81924714547541002e-13 -1.20464346851369772e-09 -9.29279648327588279e-13 2.42033969426268462e-09
-5.00300300300300307e+02 -1.18292370430203115e-12 2.10549370251202538e-09 -2.40682353072824720e-12 -1.46294599311183930e-13 -1.20207942785958020e-09 -9.40297633337587365e-13 2.42448072375730807e-09
-4.99099099099099078e+02 -1.11981234188372483e-12 2.11173274281587616e-09 -2.41295393957498013e-12 -1.10664484074802624e-13 -1.19951538720546248e-09 -9.51315618347617148e-13 2.42863342948205413e-09
-4.97897897897897906e+02 -1.05670097946520525e-12 2.11797178311972610e-09 -2.41908434842185522e-12 -7.50343688384972507e-14 -1.19695134655134413e-09 -9.62333603357620273e-13 2.43279775164410111e-09
-4.96696696696696677e+02 -9.93589617046672744e-13 2.12421082342357935e-09 -2.42521475726865277e-12 -3.94042536022023788e-14 -1.19438730589722827e-09 -9.73351588367614513e-13 2.43697363069264170e-09
-4.95495495495495504e+02 -9.30478254628308262e-13 2.13044986372743054e-09 -2.43134516611546325e-12 -3.77413836574271701e-15 -1.19182326524311075e-09 -9.84369573377575633e-13 2.44116100731962755e-09
-4.94294294294294275e+02 -8.67366892209843613e-13 2.13668890403128090e-09 -2.43747557496232542e-12 3.18559768705618484e-14 -1.18925922458899303e-09 -9.95387558387554524e-13 2.44535982246051237e-09
-4.93093093093093103e+02 -8.04255529791420969e-13 2.14292794433513250e-09 -2.44360598380914235e-12 6.74860921069439620e-14 -1.18669518393487572e-09 -1.00640554339749908e-12 2.44957001729492867e-09
-4.91891891891891873e+02 -7.41144167372869078e-13 2.14916698463898203e-09 -2.44973639265593990e-12 1.03116207343249739e-13 -1.18413114328075696e-09 -1.01742352840754785e-12 2.45379153324732668e-09
-4.90690690690690701e+02 -6.78032804954540138e-13 2.15540602494283363e-09 -2.45586680150276330e-12 1.38746322579656490e-13 -1.18156710262663965e-09 -1.02844151341752230e-12 2.45802431198759685e-09
-4.89489489489489472e+02 -6.14921442536043177e-13 2.16164506524668275e-09 -2.46199721034959962e-12 1.74376437815990338e-13 -1.17900306197252110e-09 -1.03945949842753471e-12 2.46226829543162323e-09
-4.88288288288288300e+02 -5.51810080117639920e-13 2.16788410555053807e-09 -2.46812761919632608e-12 2.10006553052333880e-13 -1.17643902131840606e-09 -1.05047748343752895e-12 2.46652342574184135e-09
-4.87087087087087070e+02 -4.88698717699243126e-13 2.17412314585438967e-09 -2.47425802804311717e-12 2.45636668288716195e-13 -1.17387498066428813e-09 -1.06149546844757408e-12 2.47078964532770360e-09
-4.85885885885885898e+02 -4.25587355280710622e-13 2.18036218615823920e-09 -2.48038843688998580e-12 2.81266783525019953e-13 -1.17131094001017020e-09 -1.07251345345752430e-12 2.47506689684617421e-09
-4.84684684684684669e+02 -3.62475992862254859e-13 2.18660122646209121e-09 -2.48651884573678335e-12 3.16896898761402470e-13 -1.16874689935605268e-09 -1.08353143846752258e-12 2.47935512320214993e-09
-4.83483483483483496e+02 -2.99364630443772034e-13 2.19284026676594075e-09 -2.49264925458360029e-12 3.52527013997733037e-13 -1.16618285870193495e-09 -1.09454942347751561e-12 2.48365426754883968e-09
-4.82282282282282267e+02 -2.36253268025535587e-13 2.19907930706979317e-09 -2.49877966343037845e-12 3.88157129234168616e-13 -1.16361881804781723e-09 -1.10556740848755266e-12 2.48796427328814877e-09
-4.81081081081081095e+02 -1.73141905606883530e-13 2.20531834737364477e-09 -2.50491007227725355e-12 4.23787244470468587e-13 -1.16105477739370054e-09 -1.11658539349749116e-12 2.49228508407098540e-09
-4.79879879879879866e+02 -1.10030543188518239e-13 2.21155738767749720e-09 -2.51104048112401232e-12 4.59417359706844996e-13 -1.15849073673958385e-09 -1.12760337850752821e-12 2.49661664379757082e-09
-4.78678678678678693e+02 -4.69191807700842862e-14 2.21779642798134880e-09 -2.51717088997082926e-12 4.95047474943171271e-13 -1.15592669608546695e-09 -1.13862136351750266e-12 2.50095889661769619e-09
-4.77477477477477464e+02 1.61921816484094435e-14 2.22403546828519833e-09 -2.52330129881767204e-12 5.30677590179506734e-13 -1.15336265543134840e-09 -1.14963934852750256e-12 2.50531178693095625e-09
-4.76276276276276292e+02 7.93035440667900821e-14 2.23027450858905034e-09 -2.52943170766445667e-12 5.66307705415936306e-13 -1.15079861477723109e-09 -1.16065733353750649e-12 2.50967525938695943e-09
-4.75075075075075063e+02 1.42414906485190108e-13 2.23651354889289987e-09 -2.53556211651132530e-12 6.01937820652270759e-13 -1.14823457412311274e-09 -1.17167531854747690e-12 2.51404925888548252e-09
-4.73873873873873890e+02 2.05526268903699993e-13 2.24275258919675065e-09 -2.54169252535799360e-12 6.37567935888602386e-13 -1.14567053346899461e-09 -1.18269330355753334e-12 2.51843373057663032e-09
-4.72672672672672661e+02 2.68637631322180798e-13 2.24899162950060349e-09 -2.54782293420488162e-12 6.73198051124949562e-13 -1.14310649281487854e-09 -1.19371128856749123e-12 2.52282861986093907e-09
-4.71471471471471432e+02 3.31748993740529125e-13 2.25523066980445633e-09 -2.55395334305169210e-12 7.08828166361333090e-13 -1.14054245216076102e-09 -1.20472927357750768e-12 2.52723387238945579e-09
-4.70270270270270260e+02 3.94860356159022855e-13 2.26146971010830586e-09 -2.56008375189852842e-12 7.44458281597661687e-13 -1.13797841150664329e-09 -1.21574725858748253e-12 2.53164943406380330e-09
-4.69069069069069087e+02 4.57971718577397031e-13 2.26770875041215704e-09 -2.56621416074531951e-12 7.80088396834069044e-13 -1.13541437085252557e-09 -1.22676524359749414e-12 2.53607525103621239e-09
-4.67867867867867858e+02 5.21083080995923072e-13 2.27394779071600947e-09 -2.57234456959211059e-12 8.15718512070423491e-13 -1.13285033019840888e-09 -1.23778322860749444e-12 2.54051126970951239e-09
-4.66666666666666629e+02 5.84194443414313405e-13 2.28018683101985859e-09 -2.57847497843894045e-12 8.51348627306758752e-13 -1.13028628954429012e-09 -1.24880121361748848e-12 2.54495743673710629e-09
-4.65465465465465456e+02 6.47305805832916994e-13 2.28642587132371391e-09 -2.58460538728573800e-12 8.86978742543073415e-13 -1.12772224889017467e-09 -1.25981919862748312e-12 2.54941369902294101e-09
-4.64264264264264284e+02 7.10417168251287939e-13 2.29266491162756303e-09 -2.59073579613257432e-12 9.22608857779433314e-13 -1.12515820823605653e-09 -1.27083718363747756e-12 2.55388000372138949e-09
-4.63063063063063055e+02 7.73528530669755819e-13 2.29890395193141546e-09 -2.59686620497937833e-12 9.58238973015812197e-13 -1.12259416758193964e-09 -1.28185516864746211e-12 2.55835629823719943e-09
-4.61861861861861826e+02 8.36639893088036292e-13 2.30514299223526540e-09 -2.60299661382618234e-12 9.93869088252199965e-13 -1.12003012692782088e-09 -1.29287315365746200e-12 2.56284253022532412e-09
-4.60660660660660653e+02 8.99751255506530021e-13 2.31138203253911700e-09 -2.60912702267302513e-12 1.02949920348855219e-12 -1.11746608627370419e-09 -1.30389113866745220e-12 2.56733864759080496e-09
-4.59459459459459481e+02 9.62862617925043138e-13 2.31762107284296653e-09 -2.61525743151979683e-12 1.06512931872483131e-12 -1.11490204561958584e-09 -1.31490912367745008e-12 2.57184459848857176e-09
-4.58258258258258252e+02 2.76178425076202035e-12 2.32645946523926307e-09 -3.16545773766723188e-12 3.15809380442385774e-12 -1.10661540834035999e-09 -1.48831595108684782e-12 2.57624555149415940e-09
-4.57057057057057023e+02 3.50473582033124750e-12 2.33243314366393273e-09 -3.65506486628167019e-12 3.18602115721617871e-12 -1.10370993961864063e-09 -1.50062430902478644e-12 2.58039881525152587e-09
-4.55855855855855850e+02 4.24768738990024201e-12 2.33840682208859909e-09 -4.14467199489600511e-12 3.21394851000858329e-12 -1.10080447089691899e-09 -1.51293266696272101e-12 2.58456278475132709e-09
-4.54654654654654678e+02 7.00796469026938478e-13 2.34250527351924677e-09 -2.97878284722886011e-12 5.74537300638644573e-13 -1.09751580768118640e-09 -5.97997266363019199e-13 2.58686720890971718e-09
-4.53453453453453449e+02 6.35392033554529572e-13 2.34571995205464098e-09 -2.98732319878459387e-12 6.14108092158762193e-13 -1.09488796311106613e-09 -5.88064521167242887e-13 2.58866602635494241e-09
-4.52252252252252219e+02 5.69987598082178827e-13 2.34893463059003188e-09 -2.99586355034037124e-12 6.53678883678821653e-13 -1.09226011854094504e-09 -5.78131775971457689e-13 2.59047025208878172e-09
-4.51051051051051047e+02 5.04583162609763459e-13 2.35214930912542526e-09 -3.00440390189608884e-12 6.93249675198913424e-13 -1.08963227397082435e-09 -5.68199030775703188e-13 2.59227987481874118e-09
-4.49849849849849875e+02 4.39178727137457951e-13 2.35536398766081451e-09 -3.01294425345188721e-12 7.32820466718979346e-13 -1.08700442940070243e-09 -5.58266285579898603e-13 2.59409488325009262e-09
-4.48648648648648646e+02 5.38304508092042180e-13 2.35767436063543743e-09 -3.15699816159093873e-12 1.01116139677591806e-12 -1.08578368838485256e-09 -7.54017091484530411e-13 2.59568227180420029e-09
-4.47447447447447416e+02 5.73405816809181733e-13 2.36043099102371082e-09 -3.24334149945182346e-12 1.01876375526688407e-12 -1.08309702478198124e-09 -7.36435130542848077e-13 2.59706489267237219e-09
-4.46246246246246244e+02 6.08507125526301900e-13 2.36318762141198669e-09 -3.32968483731268718e-12 1.02636611375778868e-12 -1.08041036117911096e-09 -7.18853169601149991e-13 2.59845248365201703e-09
-4.45045045045045072e+02 6.43608434243460840e-13 2.36594425180026090e-09 -3.41602817517360139e-12 1.03396847224874176e-12 -1.07772369757624005e-09 -7.01271208659440092e-13 2.59984503678517713e-09
-4.43843843843843842e+02 6.78709742960387136e-13 2.36870088218853553e-09 -3.50237151303450833e-12 1.04157083073978531e-12 -1.07503703397336936e-09 -6.83689247717731000e-13 2.60124254410251407e-09
-4.42642642642642613e+02 7.13811051677500840e-13 2.37145751257681140e-09 -3.58871485089537044e-12 1.04917318923071901e-12 -1.07235037037049866e-09 -6.66107286776067447e-13 2.60264499762348318e-09
-4.41441441441441441e+02 7.48912360394614545e-13 2.37421414296508603e-09 -3.67505818875620912e-12 1.05677554772167209e-12 -1.06966370676762796e-09 -6.48525325834355628e-13 2.60405238935651430e-09
-4.40240240240240269e+02 7.84013669111695937e-13 2.37697077335335363e-09 -3.76140152661709587e-12 1.06437790621264132e-12 -1.06697704316475458e-09 -6.30943364892668852e-13 2.60546471129919128e-09
-4.39039039039039039e+02 8.19114977828699781e-13 2.37972740374162867e-09 -3.84774486447793738e-12 1.07198026470362994e-12 -1.06429037956188367e-09 -6.13361403950979450e-13 2.60688195543845838e-09
-4.37837837837837810e+02 8.54216286545832872e-13 2.38248403412990206e-09 -3.93408820233884432e-12 1.07958262319459595e-12 -1.06160371595901236e-09 -5.95779443009245215e-13 2.60830411375075462e-09
-4.36636636636636638e+02 8.89317595262894878e-13 2.38524066451817711e-09 -4.02043154019970602e-12 1.08718498168557811e-12 -1.05891705235614187e-09 -5.78197482067586509e-13 2.60973117820223060e-09
-4.35435435435435465e+02 9.24418903980002120e-13 2.38799729490645132e-09 -4.10677487806062427e-12 1.09478734017648272e-12 -1.05623038875327117e-09 -5.60615521125900742e-13 2.61116314074890930e-09
-4.34234234234234236e+02 9.59520212697064125e-13 2.39075392529472761e-09 -4.19311821592145366e-12 1.10238969866745842e-12 -1.05354372515040089e-09 -5.43033560184185894e-13 2.61259999333687473e-09
-4.33033033033033007e+02 9.94621521414197216e-13 2.39351055568300141e-09 -4.27946155378241715e-12 1.10999205715837596e-12 -1.05085706154752916e-09 -5.25451599242502147e-13 2.61404172790243898e-09
-4.31831831831831835e+02 1.02972283013131738e-12 2.39626718607127604e-09 -4.36580489164327724e-12 1.11759441564932904e-12 -1.04817039794465929e-09 -5.07869638300766701e-13 2.61548833637233499e-09
-4.30630630630630662e+02 1.06482413884841816e-12 2.39902381645955150e-09 -4.45214822950420195e-12 1.12519677414031443e-12 -1.04548373434178838e-09 -4.90287677359079722e-13 2.61693981066387825e-09
-4.29429429429429433e+02 1.09992544756545432e-12 2.40178044684782488e-09 -4.53849156736500065e-12 1.13279913263130628e-12 -1.04279707073891727e-09 -4.72705716417424247e-13 2.61839614268514960e-09
-4.28228228228228204e+02 1.13502675628250986e-12 2.40453707723610034e-09 -4.62483490522595121e-12 1.14040149112223674e-12 -1.04011040713604678e-09 -4.55123755475680723e-13 2.61985732433517681e-09
-4.27027027027027032e+02 1.67026613549378718e-11 2.40539860365971044e-09 3.17481921562351956e-12 3.75362435336715824e-12 -1.03731822232733678e-09 7.87793370425773353e-13 2.61959449257857508e-09
-4.25825825825825859e+02 1.47757775147842201e-11 2.40869545009123592e-09 3.83922350527744207e-12 3.77617713082032686e-12 -1.03339124092985588e-09 8.17782059855103476e-13 2.62106070506584790e-09
-4.24624624624624630e+02 1.28488936746312534e-11 2.41199229652275767e-09 4.50362779493123533e-12 3.79872990827303827e-12 -1.02946425953237374e-09 8.47770749284401286e-13 2.62253770724765811e-09
-4.23423423423423401e+02 1.09220098344781963e-11 2.41528914295428107e-09 5.16803208458506089e-12 3.82128268572587892e-12 -1.02553727813489181e-09 8.77759438713717676e-13 2.62402548090421492e-09
-4.22222222222222229e+02 8.99512599432493230e-12 2.41858598938580407e-09 5.83243637423838886e-12 3.84383546317876643e-12 -1.02161029673741049e-09 9.07748128143080918e-13 2.62552400772429681e-09
-4.21021021021021056e+02 -7.13450759848059835e-12 2.40032338316260513e-09 -5.86668087270081665e-12 1.22683852169307853e-12 -1.02150395623517378e-09 -1.28510067855023539e-12 2.60866079667727856e-09
-4.19819819819819827e+02 -7.22285059734270450e-12 2.40363218748581879e-09 -5.62690841293453901e-12 1.20521592204084300e-12 -1.01710911237131980e-09 -1.24256437300377691e-12 2.60998955311459336e-09