TITLE = "Line y = 0, z = -700"
VARIABLES = "x", "ExR", "EyR", "EzR", "ExI", "EyI", "EzI", "abs(E)"
ZONE I= 1000, F=POINT
-6.00000000000000000e+02 -2.13326268701838644e-11 3.65070932794426408e-09 4.86525659445385281e-12 -1.54500185197121049e-11 3.30438942102823999e-10 -1.20616752192778828e-12 3.66573149605921848e-09
-5.98798798798798771e+02 -2.03787149510226098e-11 3.66741560458731246e-09 4.21391076481774493e-12 -1.49163021244981976e-11 3.44323429840311680e-10 -1.47542100424602528e-12 3.68363320148881200e-09
-5.97597597597597542e+02 -2.50434577384169017e-12 3.66329805045841911e-09 -6.92777021683116999e-12 7.95635562261309616e-13 3.40573581729857811e-10 -1.12547285417582608e-11 3.67912007669812118e-09
-5.96396396396396426e+02 -2.53451909838234842e-12 3.67795889271200780e-09 -6.49974151169952827e-12 4.84371820231792209e-13 3.53710673207910535e-10 -1.06878102356158623e-11 3.69495006612416960e-09
-5.95195195195195197e+02 -3.89484276426931749e-12 3.69119820790282079e-09 -3.70241942010443006e-12 -2.30058654679531936e-13 3.65610482013505221e-10 -9.19039399296800258e-12 3.70927602485466086e-09
-5.93993993993993968e+02 -4.20831104916972076e-12 3.70552852788599187e-09 -3.00810291206228952e-12 -3.90917285731278797e-13 3.77837994238690232e-10 -8.72369549434445700e-12 3.72475586248436711e-09
-5.92792792792792739e+02 -4.52177933406892850e-12 3.71985884786918653e-09 -2.31378640402028268e-12 -5.51775916782780492e-13 3.90065506463877414e-10 -8.25699699572110530e-12 3.74026673246113701e-09
-5.91591591591591623e+02 -4.83524761896969770e-12 3.73418916785235885e-09 -1.61946989597833723e-12 -7.12634547834434457e-13 4.02293018689060926e-10 -7.79029849709768413e-12 3.75580825030948626e-09
-5.90390390390390394e+02 -5.14871590386960013e-12 3.74851948783554317e-09 -9.25153387936022014e-13 -8.73493178886174047e-13 4.14520530914247126e-10 -7.32359999847422741e-12 3.77138003713810235e-09
-5.89189189189189165e+02 -5.46218418876897993e-12 3.76284980781872335e-09 -2.30836879893912077e-13 -1.03435180993767372e-12 4.26748043139433274e-10 -6.85690149985082643e-12 3.78698171955560869e-09
-5.87987987987987935e+02 -5.77565247366920064e-12 3.77718012780190849e-09 4.63479628148403241e-13 -1.19521044098940766e-12 4.38975555364619216e-10 -6.39020300122732932e-12 3.80261292958757145e-09
-5.86786786786786820e+02 -6.08912075856883327e-12 3.79151044778508950e-09 1.15779613619035495e-12 -1.35606907204096711e-12 4.51203067589804227e-10 -5.92350450260393965e-12 3.81827330459441683e-09
-5.85585585585585591e+02 -6.40258904346913476e-12 3.80584076776827961e-09 1.85211264423250962e-12 -1.51692770309263481e-12 4.63430579814990944e-10 -5.45680600398058472e-12 3.83396248719048311e-09
-5.84384384384384362e+02 -6.71605732836944109e-12 3.82017108775144987e-09 2.54642915227477334e-12 -1.67778633414431058e-12 4.75658092040176006e-10 -4.99010750535706903e-12 3.84968012516400668e-09
-5.83183183183183132e+02 -7.02952561326852443e-12 3.83450140773464328e-09 3.24074566031699950e-12 -1.83864496519587488e-12 4.87885604265363137e-10 -4.52340900673362928e-12 3.86542587139832149e-09
-5.81981981981982017e+02 -7.34299389816868374e-12 3.84883172771781602e-09 3.93506216835886740e-12 -1.99950359624748280e-12 5.00113116490546855e-10 -4.05671050811024042e-12 3.88119938379383278e-09
-5.80780780780780788e+02 -7.65646218306846340e-12 3.86316204770100613e-09 4.62937867640130561e-12 -2.16036222729910526e-12 5.12340628715733572e-10 -3.59001200948676876e-12 3.89700032519135643e-09
-5.79579579579579558e+02 -7.96993046796839815e-12 3.87749236768419458e-09 5.32369518444317674e-12 -2.32122085835075519e-12 5.24568140940920186e-10 -3.12331351086344088e-12 3.91282836329617635e-09
-5.78378378378378329e+02 -8.28339875286854454e-12 3.89182268766736566e-09 6.01801169248556971e-12 -2.48207948940243581e-12 5.36795653166105042e-10 -2.65661501223989773e-12 3.92868317060335255e-09
-5.77177177177177214e+02 -8.59686703776830319e-12 3.90615300765056073e-09 6.71232820052764925e-12 -2.64293812045401626e-12 5.49023165391291552e-10 -2.18991651361656622e-12 3.94456442432403177e-09
-5.75975975975975985e+02 -8.91033532266813616e-12 3.92048332763373678e-09 7.40664470856988227e-12 -2.80379675150557410e-12 5.61250677616476821e-10 -1.72321801499305579e-12 3.96047180631260261e-09
-5.74774774774774755e+02 -9.22380360756802082e-12 3.93481364761692689e-09 8.10096121661190850e-12 -2.96465538255723695e-12 5.73478189841663538e-10 -1.25651951636971398e-12 3.97640500299516184e-09
-5.73573573573573526e+02 -9.53727189246837724e-12 3.94914396760009797e-09 8.79527772465392019e-12 -3.12551401360889011e-12 5.85705702066848187e-10 -7.89821017746308762e-13 3.99236370529869856e-09
-5.72372372372372411e+02 -9.85074017736829745e-12 3.96347428758328725e-09 9.48959423269616453e-12 -3.28637264466050126e-12 5.97933214292033870e-10 -3.23122519122815896e-13 4.00834760858156063e-09
-5.71171171171171181e+02 -1.01642084622684374e-11 3.97780460756646495e-09 1.01839107407378240e-11 -3.44723127571220612e-12 6.10160726517219450e-10 1.43575979500552569e-13 4.02435641256464648e-09
-5.69969969969969952e+02 -1.04776767471678535e-11 3.99213492754965340e-09 1.08782272487800587e-11 -3.60808990676381727e-12 6.22388238742405960e-10 6.10274478123997572e-13 4.04038982126385419e-09
-5.68768768768768723e+02 -1.07911450320679967e-11 4.00646524753282862e-09 1.15725437568225986e-11 -3.76894853781545104e-12 6.34615750967591643e-10 1.07697297674752093e-12 4.05644754292329412e-09
-5.67567567567567608e+02 -1.11046133169676584e-11 4.02079556751602452e-09 1.22668602648645522e-11 -3.92980716886697818e-12 6.46843263192777636e-10 1.54367147537086395e-12 4.07252928994968357e-09
-5.66366366366366378e+02 -1.14180816018678533e-11 4.03512588749919560e-09 1.29611767729068660e-11 -4.09066579991868626e-12 6.59070775417962699e-10 2.01036997399435520e-12 4.08863477884747350e-09
-5.65165165165165149e+02 -1.17315498867678704e-11 4.04945620748237992e-09 1.36554932809485174e-11 -4.25152443097031680e-12 6.71298287643148589e-10 2.47706847261767055e-12 4.10476373015523251e-09
-5.63963963963963920e+02 -1.20450181716678391e-11 4.06378652746555679e-09 1.43498097889913207e-11 -4.41238306202196350e-12 6.83525799868333962e-10 2.94376697124121855e-12 4.12091586838268518e-09
-5.62762762762762804e+02 -1.23584864565671551e-11 4.07811684744874276e-09 1.50441262970331918e-11 -4.57324169307350356e-12 6.95753312093518817e-10 3.41046546986453310e-12 4.13709092194892665e-09
-5.61561561561561575e+02 -1.26719547414669945e-11 4.09244716743192377e-09 1.57384428050752875e-11 -4.73410032412503716e-12 7.07980824318704914e-10 3.87716396848806413e-12 4.15328862312141556e-09
-5.60360360360360346e+02 -1.29854230263670763e-11 4.10677748741510809e-09 1.64327593131177581e-11 -4.89495895517669678e-12 7.20208336543890907e-10 4.34386246711147642e-12 4.16950870795600925e-09
-5.59159159159159117e+02 -1.32988913112671483e-11 4.12110780739829654e-09 1.71270758211596308e-11 -5.05581758622842426e-12 7.32435848769077521e-10 4.81056096573487013e-12 4.18575091623783111e-09
-5.57957957957958001e+02 -1.36123595961665451e-11 4.13543812738147921e-09 1.78213923292015294e-11 -5.21667621727992878e-12 7.44663360994262480e-10 5.27725946435824122e-12 4.20201499142307258e-09
-5.56756756756756772e+02 8.80715472587251842e-12 4.15755620303098321e-09 6.46591724266214380e-12 1.14855751553341457e-11 7.62530109598538257e-10 -3.21791734616232843e-12 4.22693593479894307e-09
-5.55555555555555543e+02 9.51624471356637288e-12 4.16945178128578234e-09 6.63229520269720089e-12 1.20087211473353580e-11 7.72715184593888079e-10 -3.13815402313113224e-12 4.24048411347295557e-09
-5.54354354354354314e+02 1.02253347012610287e-11 4.18134735954058561e-09 6.79867316273226767e-12 1.25318671393364928e-11 7.82900259589238212e-10 -3.05839070010001358e-12 4.25404698357647667e-09
-5.53153153153153198e+02 1.09344246889543467e-11 4.19324293779538391e-09 6.96505112276729244e-12 1.30550131313375662e-11 7.93085334584587208e-10 -2.97862737706882102e-12 4.26762440503769531e-09
-5.51951951951951969e+02 1.16435146766487699e-11 4.20513851605018801e-09 7.13142908280225260e-12 1.35781591233388495e-11 8.03270409579937238e-10 -2.89886405403769914e-12 4.28121623941237919e-09
-5.50750750750750740e+02 1.23526046643429151e-11 4.21703409430498880e-09 7.29780704283709966e-12 1.41013051153399665e-11 8.13455484575286854e-10 -2.81910073100645164e-12 4.29482234986277672e-09
-5.49549549549549511e+02 1.30616946520367631e-11 4.22892967255979206e-09 7.46418500287207920e-12 1.46244511073410997e-11 8.23640559570637504e-10 -2.73933740797531967e-12 4.30844260113687379e-09
-5.48348348348348395e+02 1.37707846397305336e-11 4.24082525081459368e-09 7.63056296290706520e-12 1.51475970993422005e-11 8.33825634565986603e-10 -2.65957408494418526e-12 4.32207685954784416e-09
-5.47147147147147166e+02 1.44798746274246918e-11 4.25272082906939198e-09 7.79694092294203827e-12 1.56707430913434338e-11 8.44010709561336632e-10 -2.57981076191301209e-12 4.33572499295382815e-09
-5.45945945945945937e+02 1.51889646151182942e-11 4.26461640732419359e-09 7.96331888297687564e-12 1.61938890833444636e-11 8.54195784556686042e-10 -2.50004743888182841e-12 4.34938687073795215e-09
-5.44744744744744708e+02 1.58980546028125041e-11 4.27651198557899438e-09 8.12969684301211691e-12 1.67170350753457453e-11 8.64380859552035554e-10 -2.42028411585061080e-12 4.36306236378859618e-09
-5.43543543543543592e+02 1.66071445905060160e-11 4.28840756383379186e-09 8.29607480304681533e-12 1.72401810673468042e-11 8.74565934547384343e-10 -2.34052079281949579e-12 4.37675134447994690e-09
-5.42342342342342363e+02 1.73162345782005490e-11 4.30030314208860422e-09 8.46245276308196451e-12 1.77633270593479858e-11 8.84751009542736027e-10 -2.26075746978834684e-12 4.39045368665281527e-09
-5.41141141141141134e+02 1.80253245658945909e-11 4.31219872034340004e-09 8.62883072311680349e-12 1.82864730513491577e-11 8.94936084538085230e-10 -2.18099414675716720e-12 4.40416926559562384e-09
-5.39939939939939904e+02 1.87344145535886845e-11 4.32409429859820000e-09 8.79520868315191551e-12 1.88096190433503522e-11 9.05121159533434535e-10 -2.10123082372596818e-12 4.41789795802580590e-09
-5.38738738738738789e+02 -1.02163394394649338e-12 4.33289749747810357e-09 5.93546435723730845e-12 -8.35071405335410670e-12 9.12476843251396479e-10 -6.05469533249648239e-12 4.42795182678807658e-09
-5.37537537537537560e+02 2.68528264812482836e-14 4.34321670109929243e-09 6.15106375158395191e-12 -7.80970417905913008e-12 9.25354108662361704e-10 -5.75632406947105186e-12 4.44071430089559402e-09
-5.36336336336336331e+02 1.07533959690933891e-12 4.35353590472047303e-09 6.36666314593033687e-12 -7.26869430476423909e-12 9.38231374073324242e-10 -5.45795280644576351e-12 4.45350168955917462e-09
-5.35135135135135101e+02 2.12382636733744246e-12 4.36385510834166024e-09 6.58226254027685109e-12 -6.72768443046921077e-12 9.51108639484289054e-10 -5.15958154342041133e-12 4.46631377878215640e-09
-5.33933933933933986e+02 3.17231313776541677e-12 4.37417431196284332e-09 6.79786193462391783e-12 -6.18667455617431251e-12 9.63985904895251177e-10 -4.86121028039504139e-12 4.47915035660529103e-09
-5.32732732732732757e+02 4.22079990819377881e-12 4.38449351558403797e-09 7.01346132897036096e-12 -5.64566468187929388e-12 9.76863170306217230e-10 -4.56283901736967791e-12 4.49201121308935156e-09
-5.31531531531531527e+02 5.26928667862192114e-12 4.39481271920521195e-09 7.22906072331731138e-12 -5.10465480758439966e-12 9.89740435717178320e-10 -4.26446775434423849e-12 4.50489614029763343e-09
-5.30330330330330298e+02 6.31777344904934614e-12 4.40513192282640082e-09 7.44466011766374482e-12 -4.56364493328948201e-12 1.00261770112814334e-09 -3.96609649131890571e-12 4.51780493227870442e-09
-5.29129129129129069e+02 7.36626021947776635e-12 4.41545112644758555e-09 7.66025951201043675e-12 -4.02263505899444480e-12 1.01549496653910732e-09 -3.66772522829342752e-12 4.53073738504893874e-09
-5.27927927927927954e+02 8.41474698990588283e-12 4.42577033006876614e-09 7.87585890635724500e-12 -3.48162518469960632e-12 1.02837223195006800e-09 -3.36935396526821267e-12 4.54369329657531496e-09
-5.26726726726726724e+02 9.46323376033394760e-12 4.43608953368995666e-09 8.09145830070391108e-12 -2.94061531040457881e-12 1.04124949736103364e-09 -3.07098270224280193e-12 4.55667246675816935e-09
-5.25525525525525495e+02 1.05117205307622450e-11 4.44640873731114057e-09 8.30705769505065470e-12 -2.39960543610957392e-12 1.05412676277199618e-09 -2.77261143921740129e-12 4.56967469741397806e-09
-5.24324324324324380e+02 1.15602073011899738e-11 4.45672794093232612e-09 8.52265708939741772e-12 -1.85859556181468211e-12 1.06700402818295995e-09 -2.47424017619204710e-12 4.58269979225828993e-09
-5.23123123123123150e+02 1.26086940716179351e-11 4.46704714455350755e-09 8.73825648374383177e-12 -1.31758568751980001e-12 1.07988129359392291e-09 -2.17586891316672603e-12 4.59574755688863609e-09
-5.21921921921921921e+02 1.36571808420459870e-11 4.47736634817469724e-09 8.95385587809047200e-12 -7.76575813224739378e-13 1.09275855900488792e-09 -1.87749765014132862e-12 4.60881779876756699e-09
-5.20720720720720692e+02 1.47056676124738320e-11 4.48768555179587949e-09 9.16945527243737718e-12 -2.35565938929824151e-13 1.10563582441585088e-09 -1.57912638711595948e-12 4.62191032720568777e-09
-5.19519519519519463e+02 1.57541543829022458e-11 4.49800475541707001e-09 9.38505466678374599e-12 3.05443935365205379e-13 1.11851308982681672e-09 -1.28075512409060165e-12 4.63502495334486974e-09
-5.18318318318318347e+02 1.68026411533303106e-11 4.50832395903824812e-09 9.60065406113048962e-12 8.46453809660068099e-13 1.13139035523777781e-09 -9.82383861065330260e-13 4.64816149014140820e-09
-5.17117117117117118e+02 1.78511279237582073e-11 4.51864316265943037e-09 9.81625345547690367e-12 1.38746368395496394e-12 1.14426762064874014e-09 -6.84012598039951834e-13 4.66131975234940440e-09
-5.15915915915915889e+02 1.88996146941864272e-11 4.52896236628062007e-09 1.00318528498235697e-11 1.92847355824992965e-12 1.15714488605970578e-09 -3.85641335014560483e-13 4.67449955650409448e-09
-5.14714714714714773e+02 -3.26179310998738008e-13 4.54729469138788905e-09 -1.02233887063035939e-11 -2.78294128659607192e-12 1.17354789377767394e-09 -5.65048108283618748e-12 4.69630151992850115e-09
-5.13513513513513544e+02 1.45432205693652758e-14 4.56373622601025826e-09 -1.02882653520347798e-11 -2.40901158097711356e-12 1.19102939612924491e-09 -5.94988355561373405e-12 4.71660751134848285e-09
-5.12312312312312315e+02 3.55265752137688279e-13 4.58017776063263326e-09 -1.03531419977657331e-11 -2.03508187535809057e-12 1.20851089848081712e-09 -6.24928602839112552e-12 4.73694811240716044e-09
-5.11111111111111086e+02 6.95988283705920810e-13 4.59661929525499999e-09 -1.04180186434966217e-11 -1.66115216973905465e-12 1.22599240083238685e-09 -6.54868850116865917e-12 4.75732287916944932e-09
-5.09909909909909913e+02 1.03671081527401117e-12 4.61306082987737003e-09 -1.04828952892277430e-11 -1.28722246412012214e-12 1.24347390318395782e-09 -6.84809097394611527e-12 4.77773137453363456e-09
-5.08708708708708741e+02 1.37743334684205629e-12 4.62950236449974089e-09 -1.05477719349587997e-11 -9.13292758501144385e-13 1.26095540553552796e-09 -7.14749344672355844e-12 4.79817316811717526e-09
-5.07507507507507512e+02 1.71815587841050854e-12 4.64594389912211589e-09 -1.06126485806898047e-11 -5.39363052882089085e-13 1.27843690788710037e-09 -7.44689591950104039e-12 4.81864783614436847e-09
-5.06306306306306283e+02 2.05887840997864414e-12 4.66238543374448593e-09 -1.06775252264208484e-11 -1.65433347263098408e-13 1.29591841023867176e-09 -7.74629839227852880e-12 4.83915496133576264e-09
-5.05105105105105110e+02 2.39960094154704469e-12 4.67882696836685845e-09 -1.07424018721519309e-11 2.08496358355895501e-13 1.31339991259024148e-09 -8.04570086505594612e-12 4.85969413279939570e-09
-5.03903903903903938e+02 2.74032347311509627e-12 4.69526850298922270e-09 -1.08072785178828454e-11 5.82426063974828016e-13 1.33088141494181080e-09 -8.34510333783338929e-12 4.88026494592370583e-09
-5.02702702702702709e+02 3.08104600468347421e-12 4.71171003761159273e-09 -1.08721551636137341e-11 9.56355769593915629e-13 1.34836291729338176e-09 -8.64450581061089709e-12 4.90086700227227189e-09
-5.01501501501501480e+02 3.42176853625140301e-12 4.72815157223396277e-09 -1.09370318093449911e-11 1.33028547521282876e-12 1.36584441964495294e-09 -8.94390828338835319e-12 4.92149990948016685e-09
-5.00300300300300307e+02 3.76249106781987465e-12 4.74459310685633860e-09 -1.10019084550758151e-11 1.70421518083185982e-12 1.38332592199652515e-09 -9.24331075616578990e-12 4.94216328115209380e-09
-4.99099099099099078e+02 4.10321359938812980e-12 4.76103464147870946e-09 -1.10667851008068847e-11 2.07814488645085212e-12 1.40080742434809550e-09 -9.54271322894328477e-12 4.96285673676213417e-09
-4.97897897897897906e+02 4.44393613095640272e-12 4.77747617610107950e-09 -1.11316617465377799e-11 2.45207459206987672e-12 1.41828892669966605e-09 -9.84211570172068271e-12 4.98357990155522139e-09
-4.96696696696696677e+02 4.78465866252464413e-12 4.79391771072345119e-09 -1.11965383922689529e-11 2.82600429768888921e-12 1.43577042905123681e-09 -1.01415181744981840e-11 5.00433240645019618e-09
-4.95495495495495504e+02 5.12538119409252850e-12 4.81035924534581627e-09 -1.12614150379998609e-11 3.19993400330779749e-12 1.45325193140280654e-09 -1.04409206472755949e-11 5.02511388794449050e-09
-4.94294294294294275e+02 5.46610372566093713e-12 4.82680077996818713e-09 -1.13262916837310080e-11 3.57386370892682290e-12 1.47073343375437709e-09 -1.07403231200530962e-11 5.04592398802045099e-09
-4.93093093093093103e+02 5.80682625722929730e-12 4.84324231459056130e-09 -1.13911683294619936e-11 3.94779341454587982e-12 1.48821493610594910e-09 -1.10397255928305329e-11 5.06676235405317540e-09
-4.91891891891891873e+02 6.14754878879739573e-12 4.85968384921293300e-09 -1.14560449751929857e-11 4.32172312016486726e-12 1.50569643845752027e-09 -1.13391280656080149e-11 5.08762863871993788e-09
-4.90690690690690701e+02 6.48827132036572520e-12 4.87612538383530386e-09 -1.15209216209239584e-11 4.69565282578387410e-12 1.52317794080909021e-09 -1.16385305383854710e-11 5.10852249991117117e-09
-4.89489489489489472e+02 6.82899385193405143e-12 4.89256691845767886e-09 -1.15857982666549246e-11 5.06958253140290355e-12 1.54065944316066262e-09 -1.19379330111629012e-11 5.12944360064293102e-09
-4.88288288288288300e+02 7.16971638350220642e-12 4.90900845308003980e-09 -1.16506749123861557e-11 5.44351223702181668e-12 1.55814094551223028e-09 -1.22373354839404058e-11 5.15039160897083467e-09
-4.87087087087087070e+02 7.51043891507051326e-12 4.92544998770241232e-09 -1.17155515581169216e-11 5.81744194264087521e-12 1.57562244786380270e-09 -1.25367379567178361e-11 5.17136619790557593e-09
-4.85885885885885898e+02 7.85116144663862301e-12 4.94189152232478566e-09 -1.17804282038479653e-11 6.19137164825981742e-12 1.59310395021537346e-09 -1.28361404294953018e-11 5.19236704532972650e-09
-4.84684684684684669e+02 8.19188397820684262e-12 4.95833305694715487e-09 -1.18453048495790737e-11 6.56530135387878225e-12 1.61058545256694381e-09 -1.31355429022727321e-11 5.21339383391610652e-09
-4.83483483483483496e+02 8.53260650977513331e-12 4.97477459156953070e-09 -1.19101814953102144e-11 6.93923105949784724e-12 1.62806695491851560e-09 -1.34349453750502237e-11 5.23444625104752240e-09
-4.82282282282282267e+02 8.87332904134341754e-12 4.99121612619189991e-09 -1.19750581410410514e-11 7.31316076511685084e-12 1.64554845727008678e-09 -1.37343478478276928e-11 5.25552398873784797e-09
-4.81081081081081095e+02 9.21405157291144327e-12 5.00765766081426664e-09 -1.20399347867721500e-11 7.68709047073580274e-12 1.66302995962165568e-09 -1.40337503206051262e-11 5.27662674355454498e-09
-4.79879879879879866e+02 9.55477410447962411e-12 5.02409919543663750e-09 -1.21048114325031130e-11 8.06102017635474172e-12 1.68051146197322664e-09 -1.43331527933825597e-11 5.29775421654249135e-09
-4.78678678678678693e+02 9.89549663604806989e-12 5.04054073005900754e-09 -1.21696880782340889e-11 8.43494988197379056e-12 1.69799296432479720e-09 -1.46325552661600158e-11 5.31890611314911550e-09
-4.77477477477477464e+02 1.02362191676163412e-11 5.05698226468137841e-09 -1.22345647239652490e-11 8.80887958759282647e-12 1.71547446667636817e-09 -1.49319577389375204e-11 5.34008214315088155e-09
-4.76276276276276292e+02 1.05769416991844445e-11 5.07342379930374927e-09 -1.22994413696962507e-11 9.18280929321176545e-12 1.73295596902793914e-09 -1.52313602117149991e-11 5.36128202058102761e-09
-4.75075075075075063e+02 7.31111972309361152e-12 5.09382328542917289e-09 -1.13571791417386453e-11 -2.71086506756205547e-12 1.76582709017355527e-09 -1.25575322660776658e-11 5.39124553827470799e-09
-4.73873873873873890e+02 3.90001648511900844e-12 5.10941295134722963e-09 -9.06808241397010356e-12 -4.97394151325986089e-12 1.78408575469557748e-09 -1.10987228128886939e-11 5.41195972356520798e-09
-4.72672672672672661e+02 4.88913247142906090e-13 5.12500261726529465e-09 -6.77898568620130333e-12 -7.23701795895813159e-12 1.80234441921760237e-09 -9.63991335969963152e-12 5.43270547043575444e-09
-4.71471471471471432e+02 -2.92218999083242078e-12 5.14059228318335387e-09 -4.48988895843239969e-12 -9.50009440465635060e-12 1.82060308373962561e-09 -8.18110390651051744e-12 5.45348241869344475e-09
-4.70270270270270260e+02 -6.33329322880754085e-12 5.15618194910141475e-09 -2.20079223066407767e-12 -1.17631708503540009e-11 1.83886174826164865e-09 -6.72229445332162308e-12 5.47429021307601962e-09
-4.69069069069069087e+02 -9.74439646678260922e-12 5.17177161501947646e-09 8.83044971046708655e-14 -1.40262472960518063e-11 1.85712041278367251e-09 -5.26348500013259948e-12 5.49512850317867577e-09
-4.67867867867867858e+02 -1.31554997047580395e-11 5.18736128093753817e-09 2.37740122487318676e-12 -1.62893237417497410e-11 1.87537907730569679e-09 -3.80467554694361465e-12 5.51599694338194406e-09
-4.66666666666666629e+02 -1.65666029427338833e-11 5.20295094685560070e-09 4.66649795264174142e-12 -1.85524001874480634e-11 1.89363774182772086e-09 -2.34586609375459750e-12 5.53689519278057348e-09
-4.65465465465465456e+02 -1.99777061807104510e-11 5.21854061277366324e-09 6.95559468041041887e-12 -2.08154766331464375e-11 1.91189640634974493e-09 -8.87056640565580359e-13 5.55782291511341101e-09
-4.64264264264264284e+02 9.08710019985348325e-12 5.23940852134778310e-09 4.13333748086593475e-12 9.56418918229107142e-12 1.93608101170912342e-09 -4.45789109257056740e-12 5.58569801760253334e-09
-4.63063063063063055e+02 9.41594822186686387e-12 5.24849297926353916e-09 3.95839839405319871e-12 9.91450566376540282e-12 1.95179938253051088e-09 -4.57078968774276537e-12 5.59968060710294742e-09
-4.61861861861861826e+02 9.74479624388044805e-12 5.25757743717930680e-09 3.78345930724023164e-12 1.02648221452398764e-11 1.96751775335190454e-09 -4.68368828291509259e-12 5.61368713029321042e-09
-4.60660660660660653e+02 1.00736442658940387e-11 5.26666189509507278e-09 3.60852022042740513e-12 1.06151386267144243e-11 1.98323612417329489e-09 -4.79658687808735114e-12 5.62771740847148926e-09
-4.59459459459459481e+02 1.04024922879071640e-11 5.27574635301083298e-09 3.43358113361455762e-12 1.09654551081887072e-11 1.99895449499468482e-09 -4.90948547325966705e-12 5.64177126441201169e-09
-4.58258258258258252e+02 1.07313403099207240e-11 5.28483081092658738e-09 3.25864204680184622e-12 1.13157715896631242e-11 2.01467286581607352e-09 -5.02238406843192722e-12 5.65584852235416315e-09
-4.57057057057057023e+02 1.10601883319340238e-11 5.29391526884235668e-09 3.08370295998881413e-12 1.16660880711375461e-11 2.03039123663746511e-09 -5.13528266360432149e-12 5.66994900799162924e-09
-4.55855855855855850e+02 1.13890363539475159e-11 5.30299972675811191e-09 2.90876387317614191e-12 1.20164045526120051e-11 2.04610960745885421e-09 -5.24818125877654692e-12 5.68407254846147031e-09
-4.54654654654654678e+02 1.17178843759610969e-11 5.31208418467387789e-09 2.73382478636330732e-12 1.23667210340864399e-11 2.06182797828024415e-09 -5.36107985394886445e-12 5.69821897233338134e-09
-4.53453453453453449e+02 1.20467323979742966e-11 5.32116864258964140e-09 2.55888569955038226e-12 1.27170375155607099e-11 2.07754634910163574e-09 -5.47397844912114885e-12 5.71238810959878226e-09
-4.52252252252252219e+02 1.23755804199875447e-11 5.33025310050539663e-09 2.38394661273766561e-12 1.30673539970351399e-11 2.09326471992302361e-09 -5.58687704429337106e-12 5.72657979166007785e-09
-4.51051051051051047e+02 1.27044284420010416e-11 5.33933755842116179e-09 2.20900752592483668e-12 1.34176704785096054e-11 2.10898309074441437e-09 -5.69977563946569424e-12 5.74079385131990354e-09
-4.49849849849849875e+02 1.30332764640142979e-11 5.34842201633692529e-09 2.03406843911201663e-12 1.37679869599839836e-11 2.12470146156580472e-09 -5.81267423463795037e-12 5.75503012277033152e-09
-4.48648648648648646e+02 1.33621244860279564e-11 5.35750647425268466e-09 1.85912935229907056e-12 1.41183034414584588e-11 2.14041983238719466e-09 -5.92557282981026870e-12 5.76928844158220349e-09
-4.47447447447447416e+02 1.36909725080413305e-11 5.36659093216844651e-09 1.68419026548623436e-12 1.44686199229328968e-11 2.15613820320858583e-09 -6.03847142498261854e-12 5.78356864469445331e-09
-4.46246246246246244e+02 1.40198205300546562e-11 5.37567539008421415e-09 1.50925117867352821e-12 1.48189364044072444e-11 2.17185657402997742e-09 -6.15137002015488517e-12 5.79787057040344805e-09
-4.45045045045045072e+02 1.43486685520679560e-11 5.38475984799997766e-09 1.33431209186076713e-12 1.51692528858816711e-11 2.18757494485136736e-09 -6.26426861532710737e-12 5.81219405835236857e-09
-4.43843843843843842e+02 1.46775165740812155e-11 5.39384430591573206e-09 1.15937300504793659e-12 1.55195693673560009e-11 2.20329331567275564e-09 -6.37716721049943136e-12 5.82653894952066217e-09
-4.42642642642642613e+02 1.50063645960950485e-11 5.40292876383150384e-09 9.84433918234921859e-13 1.58698858488305633e-11 2.21901168649414971e-09 -6.49006580567172950e-12 5.84090508621352170e-09
-4.41441441441441441e+02 1.53352126181081803e-11 5.41201322174725493e-09 8.09494831422089695e-13 1.62202023303048478e-11 2.23473005731553510e-09 -6.60296440084402117e-12 5.85529231205129760e-09
-4.40240240240240269e+02 1.56640606401215706e-11 5.42109767966302092e-09 6.34555744609535412e-13 1.65705188117792164e-11 2.25044842813692627e-09 -6.71586299601631123e-12 5.86970047195919210e-09
-4.39039039039039039e+02 1.59929086621349415e-11 5.43018213757878359e-09 4.59616657796811491e-13 1.69208352932536786e-11 2.26616679895831786e-09 -6.82876159118859887e-12 5.88412941215669693e-09
-4.37837837837837810e+02 1.63217566841483674e-11 5.43926659549454048e-09 2.84677570983858158e-13 1.72711517747280375e-11 2.28188516977970573e-09 -6.94166018636088570e-12 5.89857898014730900e-09
-4.36636636636636638e+02 1.66506047061616446e-11 5.44835105341030647e-09 1.09738484170917749e-13 1.76214682562024610e-11 2.29760354060109649e-09 -7.05455878153318383e-12 5.91304902470820218e-09
-4.35435435435435465e+02 1.69794527281754000e-11 5.45743551132607163e-09 -6.52006026418901813e-14 1.79717847376769556e-11 2.31332191142248891e-09 -7.16745737670551348e-12 5.92753939587989753e-09
-4.34234234234234236e+02 1.73083007501887386e-11 5.46651996924182768e-09 -2.40139689454875827e-13 1.83221012191513435e-11 2.32904028224387678e-09 -7.28035597187785927e-12 5.94204994495606661e-09
-4.33033033033033007e+02 1.76371487722019222e-11 5.47560442715759119e-09 -4.15078776267855009e-13 1.86724177006256442e-11 2.34475865306526796e-09 -7.39325456705014206e-12 5.95658052447336211e-09
-4.31831831831831835e+02 1.79659967942155613e-11 5.48468888507335717e-09 -5.90017863080630628e-13 1.90227341821002551e-11 2.36047702388665913e-09 -7.50615316222240385e-12 5.97113098820122948e-09
-4.30630630630630662e+02 1.82948448162290776e-11 5.49377334298911820e-09 -7.64956949893280231e-13 1.93730506635746043e-11 2.37619539470804948e-09 -7.61905175739455093e-12 5.98570119113185010e-09
-4.29429429429429433e+02 1.86236928382425131e-11 5.50285780090488087e-09 -9.39896036706291726e-13 1.97233671450490633e-11 2.39191376552943900e-09 -7.73195035256700820e-12 6.00029098947011165e-09
-4.28228228228228204e+02 1.89525408602560392e-11 5.51194225882064603e-09 -1.11483512351896718e-12 2.00736836265235643e-11 2.40763213635083183e-09 -7.84484894773922152e-12 6.01490024062360259e-09
-4.27027027027027032e+02 1.92813888822689836e-11 5.52102671673639796e-09 -1.28977421033183650e-12 2.04240001079978166e-11 2.42335050717221722e-09 -7.95774754291149462e-12 6.02952880319267190e-09
-4.25825825825825859e+02 6.54171217635477834e-11 5.52998529137549895e-09 3.02521782706062463e-11 7.06113019083909017e-11 2.44000785755323543e-09 2.60708546649464113e-11 6.04526557789490259e-09
-4.24624624624624630e+02 6.10327217639571646e-11 5.54387449766653548e-09 3.12422811774457819e-11 6.65365741747993775e-11 2.46376693010000969e-09 2.67210643194145846e-11 6.06749817766533664e-09
-4.23423423423423401e+02 5.66483217643655892e-11 5.55776370395757284e-09 3.22323840842863774e-11 6.24618464412079567e-11 2.48752600264678560e-09 2.73712739738830681e-11 6.08978009707365137e-09
-4.22222222222222229e+02 5.22639217647744792e-11 5.57165291024861350e-09 3.32224869911261458e-11 5.83871187076163808e-11 2.51128507519356068e-09 2.80214836283509571e-11 6.11211079673033965e-09
-4.21021021021021056e+02 4.78795217651820250e-11 5.58554211653964589e-09 3.42125898979663018e-11 5.43123909740243913e-11 2.53504414774033493e-09 2.86716932828195181e-11 6.13448974392750283e-09
-4.19819819819819827e+02 4.34951217655916517e-11 5.59943132283068739e-09 3.52026928048066905e-11 5.02376632404332807e-11 2.55880322028711291e-09 2.93219029372878207e-11 6.15691641255969532e-09
-4.18618618618618598e+02 3.91107217660000635e-11 5.61332052912172557e-09 3.61927957116463813e-11 4.61629355068417177e-11 2.58256229283388758e-09 2.99721125917558906e-11 6.17939028304517620e-09
-4.17417417417417425e+02 3.47263217664096773e-11 5.62720973541275796e-09 3.71828986184872094e-11 4.20882077732505812e-11 2.60632136538065935e-09 3.06223222462246326e-11 6.20191084224775388e-09